ITEM: TIMESTEP
0
ITEM: NUMBER OF ATOMS
1600
ITEM: BOX BOUNDS pp pp pp
-3.0000000000000000e+01 3.0000000000000000e+01
-3.0000000000000000e+01 3.0000000000000000e+01
-5.0000000000000000e-01 5.0000000000000000e-01
ITEM: ATOMS id type xs ys zs
429 1 0.0195025 0.00982128 0.5
1363 1 0.0368829 0.0191363 0.5
1253 1 0.0553809 0.00187449 0.5
657 1 0.0654214 0.0171813 0.5
541 1 0.0746553 0.000516616 0.5
431 1 0.0915049 0.0101081 0.5
577 1 0.148845 0.0142788 0.5
635 1 0.201558 0.00438882 0.5
1332 1 0.203268 0.0234748 0.5
1055 1 0.258474 0.0206255 0.5
1323 1 0.239688 0.020824 0.5
987 1 0.284825 0.00716196 0.5
1488 1 0.266497 0.0031613 0.5
449 1 0.307177 0.00136112 0.5
42 1 0.326261 0.00200013 0.5
723 1 0.365698 0.00130093 0.5
1106 1 0.402198 0.0161859 0.5
764 1 0.420737 0.021063 0.5
1506 2 0.462587 0.0104779 0.5
1449 1 0.494148 0.010361 0.5
1325 1 0.516944 0.0113509 0.5
1538 2 0.549591 0.00368621 0.5
1182 1 0.605526 0.0127319 0.5
480 1 0.623734 0.0096203 0.5
266 1 0.687361 0.0222851 0.5
598 1 0.685592 0.00372989 0.5
1018 1 0.706955 0.015306 0.5
694 1 0.768964 0.0140255 0.5
366 1 0.798496 0.0210769 0.5
1383 1 0.786261 0.00673789 0.5
248 1 0.834769 0.0225576 0.5
160 1 0.855452 0.00229295 0.5
399 1 0.853115 0.0207512 0.5
149 1 0.902148 0.00769101 0.5
1178 1 0.92265 0.018992 0.5
193 1 0.919259 0.00104496 0.5
692 1 0.946303 0.0134387 0.5
1043 1 0.964749 0.00847605 0.5
1222 1 0.0206967 0.0284238 0.5
796 1 0.0271759 0.0461768 0.5
1111 1 0.0515775 0.0320355 0.5
1563 2 0.083882 0.0410863 0.5
558 1 0.108062 0.0249044 0.5
1493 1 0.124214 0.033897 0.5
1116 1 0.216163 0.0462248 0.5
1394 1 0.243648 0.0390817 0.5
637 1 0.26125 0.0435659 0.5
128 1 0.274364 0.0305965 0.5
824 1 0.291881 0.0370937 0.5
678 1 0.309321 0.0439285 0.5
1076 1 0.35227 0.0343006 0.5
459 1 0.370494 0.0359781 0.5
119 1 0.388722 0.0342099 0.5
1148 1 0.406556 0.0338205 0.5
1257 1 0.423197 0.0397707 0.5
1193 1 0.438044 0.0295557 0.5
57 1 0.453032 0.0404356 0.5
1310 1 0.478795 0.0374846 0.5
1494 1 0.527857 0.0268281 0.5
1258 1 0.5624 0.0322612 0.5
1251 1 0.579172 0.0402187 0.5
688 1 0.613751 0.0336375 0.5
486 1 0.630918 0.0264497 0.5
1358 1 0.629537 0.0445926 0.5
141 1 0.711106 0.0335683 0.5
1408 1 0.6935 0.0398281 0.5
1052 1 0.730057 0.0340631 0.5
108 1 0.745199 0.0461911 0.5
789 1 0.761908 0.0342467 0.5
1435 1 0.780959 0.0278827 0.5
1438 1 0.816448 0.0266069 0.5
690 1 0.852605 0.0394932 0.5
665 1 0.868937 0.0301559 0.5
593 1 0.905182 0.0259787 0.5
1123 1 0.942201 0.0358044 0.5
757 1 0.958468 0.0264172 0.5
259 1 0.960477 0.0442665 0.5
1598 2 0.990044 0.0290932 0.5
1567 2 0.00455909 0.0683673 0.5
551 1 0.0369116 0.062872 0.5
580 1 0.0548821 0.0530161 0.5
1425 1 0.0735906 0.0685374 0.5
597 1 0.115515 0.0517883 0.5
432 1 0.102655 0.0655599 0.5
46 1 0.134129 0.0533854 0.5
1475 1 0.15922 0.0548664 0.5
115 1 0.189494 0.0678597 0.5
496 1 0.171036 0.0710558 0.5
923 1 0.198144 0.0513305 0.5
1051 1 0.249464 0.0579169 0.5
579 1 0.278303 0.0497363 0.5
532 1 0.279951 0.0687327 0.5
1250 1 0.295335 0.0559965 0.5
276 1 0.312698 0.0628848 0.5
847 1 0.351233 0.0677044 0.5
84 1 0.362685 0.0529019 0.5
384 1 0.379971 0.069113 0.5
16 1 0.399835 0.051343 0.5
337 1 0.381223 0.0509722 0.5
616 1 0.422465 0.0660208 0.5
774 1 0.437322 0.0510089 0.5
500 1 0.454171 0.0588036 0.5
1001 1 0.526331 0.0626935 0.5
801 1 0.56267 0.0506162 0.5
1105 1 0.579076 0.0587314 0.5
220 1 0.5969 0.0627118 0.5
1436 1 0.612186 0.0523241 0.5
553 1 0.627635 0.0623568 0.5
107 1 0.645272 0.0581769 0.5
849 1 0.728478 0.0546938 0.5
1068 1 0.75049 0.0687371 0.5
1550 2 0.781777 0.0595318 0.5
388 1 0.8244 0.0606045 0.5
521 1 0.841068 0.0691142 0.5
827 1 0.871797 0.0484128 0.5
1175 1 0.928091 0.0482523 0.5
1130 1 0.945662 0.0549882 0.5
221 1 0.964664 0.0620683 0.5
23 1 0.0564236 0.0733581 0.5
748 1 0.0721927 0.0868148 0.5
40 1 0.0890848 0.077954 0.5
578 1 0.117715 0.0755483 0.5
126 1 0.0976014 0.0940843 0.5
413 1 0.115648 0.0937923 0.5
1465 1 0.133435 0.0849746 0.5
491 1 0.152269 0.0727658 0.5
1074 1 0.163407 0.088018 0.5
1161 1 0.23717 0.0716891 0.5
1441 1 0.239741 0.0898793 0.5
1215 1 0.254888 0.0785054 0.5
430 1 0.27205 0.0870874 0.5
187 1 0.298919 0.0926805 0.5
343 1 0.297788 0.0742159 0.5
495 1 0.314744 0.0822211 0.5
300 1 0.370716 0.0860727 0.5
1525 2 0.401938 0.0899571 0.5
1526 2 0.445864 0.0882758 0.5
795 1 0.476298 0.0724158 0.5
436 1 0.49458 0.0784282 0.5
747 1 0.51393 0.077824 0.5
197 1 0.530608 0.0866803 0.5
1564 2 0.614382 0.088447 0.5
618 1 0.710639 0.0863145 0.5
1073 1 0.691865 0.0857952 0.5
409 1 0.779095 0.0910199 0.5
634 1 0.923927 0.088018 0.5
845 1 0.950163 0.0736158 0.5
733 1 0.941397 0.0947252 0.5
176 1 0.974524 0.0778475 0.5
919 1 0.96526 0.093896 0.5
422 1 0.984829 0.0952225 0.5
230 1 0.00512515 0.100027 0.5
1266 1 0.0147809 0.115734 0.5
1592 2 0.0392122 0.0983156 0.5
1208 1 0.0703623 0.105331 0.5
7 1 0.088358 0.109579 0.5
1424 1 0.107391 0.110859 0.5
229 1 0.130652 0.103316 0.5
1400 1 0.14295 0.116672 0.5
445 1 0.147425 0.0968542 0.5
302 1 0.162321 0.107094 0.5
1562 2 0.192817 0.0994511 0.5
372 1 0.224418 0.100261 0.5
1010 1 0.256458 0.0975721 0.5
641 1 0.265122 0.114273 0.5
356 1 0.32571 0.0979444 0.5
497 1 0.365715 0.104623 0.5
272 1 0.380847 0.115501 0.5
1204 1 0.411238 0.117725 0.5
770 1 0.429003 0.114278 0.5
1327 1 0.473117 0.104807 0.5
36 1 0.5439 0.100241 0.5
1576 2 0.574777 0.10898 0.5
1186 1 0.605853 0.116395 0.5
74 1 0.646849 0.108592 0.5
255 1 0.733189 0.103279 0.5
201 1 0.763709 0.101548 0.5
706 1 0.798522 0.117361 0.5
921 1 0.814643 0.107518 0.5
610 1 0.831216 0.118261 0.5
1086 1 0.87086 0.104412 0.5
1237 1 0.884203 0.117301 0.5
342 1 0.888861 0.0990142 0.5
463 1 0.926014 0.106759 0.5
1035 1 0.943224 0.113372 0.5
181 1 0.975667 0.114458 0.5
1486 1 0.995569 0.115963 0.5
116 1 0.00650468 0.131505 0.5
142 1 0.0447934 0.132331 0.5
866 1 0.0259922 0.130886 0.5
516 1 0.0606028 0.121685 0.5
489 1 0.112559 0.133861 0.5
856 1 0.0960854 0.12613 0.5
1233 1 0.124066 0.119995 0.5
1254 1 0.159191 0.125072 0.5
555 1 0.176517 0.1317 0.5
811 1 0.195589 0.131693 0.5
652 1 0.224077 0.134891 0.5
672 1 0.288355 0.120322 0.5
1029 1 0.297669 0.137013 0.5
902 1 0.363827 0.123705 0.5
174 1 0.364324 0.142522 0.5
954 1 0.380029 0.133689 0.5
620 1 0.397557 0.129069 0.5
412 1 0.422082 0.131705 0.5
1597 2 0.455054 0.13126 0.5
1225 1 0.485751 0.136731 0.5
319 1 0.499624 0.124418 0.5
237 1 0.532863 0.133825 0.5
899 1 0.569189 0.140957 0.5
1079 1 0.551828 0.13365 0.5
398 1 0.63356 0.141264 0.5
995 1 0.628271 0.122971 0.5
1596 2 0.664618 0.134582 0.5
1288 1 0.741811 0.133022 0.5
1030 1 0.805308 0.142127 0.5
251 1 0.814743 0.126285 0.5
1414 1 0.829635 0.137717 0.5
1329 1 0.846783 0.129597 0.5
1146 1 0.865676 0.122582 0.5
148 1 0.946439 0.137854 0.5
273 1 0.93081 0.127058 0.5
888 1 0.958557 0.123548 0.5
1002 1 0.0156718 0.147151 0.5
768 1 0.0338161 0.147932 0.5
443 1 0.0516171 0.149611 0.5
1509 2 0.0805501 0.156016 0.5
428 1 0.10971 0.15168 0.5
732 1 0.125891 0.159052 0.5
1195 1 0.160695 0.143258 0.5
1061 1 0.176519 0.152659 0.5
949 1 0.209865 0.147234 0.5
777 1 0.214769 0.166488 0.5
1121 1 0.227783 0.153336 0.5
1083 1 0.24544 0.158815 0.5
214 1 0.263235 0.154325 0.5
143 1 0.278445 0.164786 0.5
1372 1 0.29468 0.155728 0.5
1226 1 0.352996 0.157089 0.5
1529 2 0.398525 0.159344 0.5
8 1 0.428521 0.148201 0.5
296 1 0.575239 0.15879 0.5
1588 2 0.602452 0.145382 0.5
253 1 0.635602 0.160051 0.5
943 1 0.654109 0.163025 0.5
54 1 0.757231 0.155922 0.5
393 1 0.816824 0.156756 0.5
663 1 0.849453 0.148975 0.5
1362 1 0.865538 0.160972 0.5
1026 1 0.891231 0.152214 0.5
1595 2 0.922755 0.158358 0.5
1566 2 0.979376 0.147602 0.5
965 1 0.00989275 0.178855 0.5
790 1 0.0430798 0.190264 0.5
186 1 0.0504147 0.168565 0.5
246 1 0.0849265 0.187967 0.5
437 1 0.110064 0.170556 0.5
1593 2 0.145347 0.182283 0.5
100 1 0.175797 0.172036 0.5
1103 1 0.22021 0.185422 0.5
525 1 0.232663 0.171981 0.5
881 1 0.250747 0.176892 0.5
714 1 0.287234 0.18114 0.5
1573 2 0.323974 0.169435 0.5
451 1 0.355649 0.186974 0.5
798 1 0.374654 0.189646 0.5
684 1 0.393721 0.188851 0.5
1521 2 0.439334 0.175888 0.5
1050 1 0.517375 0.170962 0.5
1015 1 0.55939 0.167648 0.5
1391 1 0.586209 0.173863 0.5
1533 2 0.615687 0.184901 0.5
41 1 0.644018 0.177873 0.5
573 1 0.686991 0.181665 0.5
262 1 0.721354 0.167959 0.5
31 1 0.725801 0.185769 0.5
857 1 0.741727 0.167502 0.5
503 1 0.757077 0.178016 0.5
1297 1 0.743413 0.190404 0.5
1558 2 0.787261 0.169745 0.5
1057 1 0.868815 0.180227 0.5
1411 1 0.894757 0.174174 0.5
49 1 0.907422 0.188451 0.5
203 1 0.957457 0.172261 0.5
1141 1 0.972966 0.182578 0.5
1487 1 0.991048 0.178082 0.5
177 1 0.00885596 0.197348 0.5
738 1 0.0412499 0.209135 0.5
1097 1 0.061506 0.198451 0.5
96 1 0.115573 0.207326 0.5
1355 1 0.102818 0.193698 0.5
594 1 0.0968082 0.211865 0.5
1469 1 0.164952 0.207375 0.5
648 1 0.175654 0.191509 0.5
1456 1 0.185638 0.20754 0.5
1206 1 0.238384 0.190808 0.5
1409 1 0.254524 0.20099 0.5
121 1 0.270762 0.210424 0.5
1132 1 0.285319 0.199648 0.5
1315 1 0.302146 0.19295 0.5
946 1 0.30655 0.213826 0.5
1431 1 0.319019 0.200018 0.5
560 1 0.330058 0.214255 0.5
162 1 0.341095 0.199103 0.5
172 1 0.362764 0.204137 0.5
132 1 0.385285 0.204627 0.5
673 1 0.404501 0.203964 0.5
99 1 0.423269 0.201909 0.5
137 1 0.441766 0.207172 0.5
465 1 0.459676 0.199536 0.5
147 1 0.477004 0.2101 0.5
1256 1 0.476498 0.191348 0.5
1271 1 0.571002 0.20966 0.5
1219 1 0.583972 0.193634 0.5
252 1 0.63077 0.214089 0.5
1038 1 0.659521 0.208605 0.5
1164 1 0.656659 0.190714 0.5
895 1 0.674166 0.19511 0.5
758 1 0.686371 0.208155 0.5
848 1 0.699694 0.19516 0.5
215 1 0.703491 0.21355 0.5
900 1 0.717004 0.201638 0.5
131 1 0.734433 0.206959 0.5
213 1 0.753184 0.206503 0.5
1133 1 0.786485 0.202211 0.5
279 1 0.805226 0.195678 0.5
1304 1 0.824184 0.195288 0.5
941 1 0.842386 0.200157 0.5
1005 1 0.861444 0.197738 0.5
1262 1 0.87836 0.207747 0.5
386 1 0.889064 0.192069 0.5
196 1 0.898096 0.208252 0.5
1547 2 0.937784 0.19926 0.5
28 1 0.967752 0.207157 0.5
21 1 0.983882 0.197418 0.5
1120 1 0.0283386 0.228049 0.5
589 1 0.058364 0.216584 0.5
130 1 0.0614532 0.23468 0.5
676 1 0.0800877 0.233494 0.5
1100 1 0.0772268 0.214902 0.5
854 1 0.110395 0.225161 0.5
1220 1 0.124668 0.237067 0.5
484 1 0.136506 0.222592 0.5
1241 1 0.155558 0.225279 0.5
680 1 0.174479 0.223308 0.5
1143 1 0.207148 0.215765 0.5
833 1 0.223515 0.227019 0.5
917 1 0.255279 0.220041 0.5
563 1 0.247525 0.236797 0.5
1284 1 0.272261 0.22889 0.5
934 1 0.288002 0.218093 0.5
731 1 0.348638 0.216427 0.5
1377 1 0.374035 0.218979 0.5
267 1 0.393108 0.220826 0.5
321 1 0.381822 0.235887 0.5
1519 2 0.421222 0.232623 0.5
287 1 0.486912 0.227511 0.5
311 1 0.543267 0.223746 0.5
510 1 0.567641 0.23191 0.5
1517 2 0.597271 0.225513 0.5
5 1 0.626584 0.234936 0.5
365 1 0.655459 0.226539 0.5
600 1 0.673117 0.220751 0.5
756 1 0.690934 0.226233 0.5
280 1 0.706696 0.235613 0.5
861 1 0.720095 0.220134 0.5
784 1 0.768796 0.217849 0.5
330 1 0.775621 0.236908 0.5
1537 2 0.805965 0.226709 0.5
743 1 0.835745 0.217558 0.5
194 1 0.847349 0.232591 0.5
915 1 0.853992 0.214834 0.5
245 1 0.868752 0.225854 0.5
389 1 0.887489 0.224179 0.5
58 1 0.906203 0.224969 0.5
308 1 0.924619 0.227182 0.5
1437 1 0.947868 0.228123 0.5
697 1 0.965911 0.225768 0.5
1502 2 0.996296 0.226197 0.5
631 1 0.0196645 0.245964 0.5
55 1 0.00122048 0.257498 0.5
1356 1 0.0982321 0.239152 0.5
602 1 0.112744 0.251322 0.5
1013 1 0.131292 0.254533 0.5
154 1 0.165034 0.261556 0.5
440 1 0.161329 0.243191 0.5
964 1 0.143142 0.240081 0.5
111 1 0.179854 0.241616 0.5
571 1 0.19597 0.252795 0.5
232 1 0.233287 0.248694 0.5
367 1 0.216312 0.256379 0.5
1584 2 0.332027 0.244931 0.5
66 1 0.364143 0.248987 0.5
310 1 0.381898 0.254375 0.5
903 1 0.399756 0.258463 0.5
325 1 0.446918 0.248507 0.5
1017 1 0.502942 0.243195 0.5
728 1 0.541631 0.256533 0.5
123 1 0.560714 0.257642 0.5
327 1 0.579236 0.25228 0.5
740 1 0.614648 0.249538 0.5
1301 1 0.598013 0.258061 0.5
1173 1 0.631942 0.254932 0.5
60 1 0.643581 0.240683 0.5
285 1 0.661163 0.244031 0.5
1316 1 0.650005 0.258415 0.5
1479 1 0.678046 0.238422 0.5
1293 1 0.674636 0.256409 0.5
173 1 0.692622 0.24963 0.5
1063 1 0.710896 0.253929 0.5
1518 2 0.743834 0.238635 0.5
1037 1 0.77102 0.255963 0.5
1155 1 0.789105 0.252667 0.5
649 1 0.807537 0.260532 0.5
1500 1 0.824564 0.251888 0.5
504 1 0.847532 0.256583 0.5
153 1 0.888769 0.251596 0.5
120 1 0.905585 0.243513 0.5
1553 2 0.935488 0.256298 0.5
650 1 0.967253 0.251899 0.5
1577 2 0.0459271 0.262511 0.5
927 1 0.119667 0.268982 0.5
1433 1 0.134289 0.280525 0.5
304 1 0.146291 0.265499 0.5
329 1 0.188421 0.269979 0.5
76 1 0.232957 0.267533 0.5
1185 1 0.215986 0.274794 0.5
531 1 0.24991 0.275834 0.5
34 1 0.267799 0.281888 0.5
1091 1 0.315353 0.271409 0.5
1348 1 0.368952 0.267487 0.5
50 1 0.362256 0.285018 0.5
951 1 0.387163 0.272554 0.5
1150 1 0.403064 0.283804 0.5
1328 1 0.417392 0.263941 0.5
1169 1 0.426539 0.28009 0.5
190 1 0.436104 0.263969 0.5
1066 1 0.454843 0.264897 0.5
1000 1 0.529584 0.271707 0.5
223 1 0.548029 0.273686 0.5
893 1 0.566231 0.275392 0.5
326 1 0.583925 0.2705 0.5
1006 1 0.61728 0.267644 0.5
501 1 0.650845 0.27671 0.5
1470 1 0.666985 0.284955 0.5
425 1 0.681096 0.273381 0.5
668 1 0.698415 0.26758 0.5
75 1 0.756081 0.267242 0.5
282 1 0.772962 0.27479 0.5
168 1 0.791725 0.270958 0.5
161 1 0.83254 0.268487 0.5
1407 1 0.81504 0.277843 0.5
1044 1 0.850191 0.27536 0.5
408 1 0.867808 0.282319 0.5
1090 1 0.904188 0.262349 0.5
345 1 0.913688 0.278755 0.5
562 1 0.958252 0.285356 0.5
1300 1 0.0108118 0.299225 0.5
722 1 0.0276879 0.30714 0.5
452 1 0.0583284 0.302681 0.5
1137 1 0.0668636 0.28622 0.5
958 1 0.112475 0.286396 0.5
813 1 0.111137 0.308011 0.5
633 1 0.127163 0.297886 0.5
392 1 0.151414 0.298006 0.5
391 1 0.208432 0.291607 0.5
953 1 0.227406 0.289473 0.5
838 1 0.254348 0.307889 0.5
897 1 0.315092 0.289988 0.5
18 1 0.339614 0.295154 0.5
22 1 0.356751 0.30279 0.5
874 1 0.374983 0.298876 0.5
97 1 0.393763 0.300368 0.5
1142 1 0.419621 0.297367 0.5
1582 2 0.455923 0.295525 0.5
942 1 0.488591 0.300059 0.5
884 1 0.507455 0.299374 0.5
1289 1 0.524117 0.28992 0.5
1439 1 0.555415 0.290766 0.5
858 1 0.574193 0.29239 0.5
1476 1 0.597594 0.303034 0.5
763 1 0.635171 0.285915 0.5
1314 1 0.631621 0.304035 0.5
679 1 0.651756 0.296136 0.5
166 1 0.67107 0.302778 0.5
204 1 0.72961 0.294788 0.5
716 1 0.75393 0.28596 0.5
53 1 0.74621 0.303024 0.5
534 1 0.834746 0.297324 0.5
707 1 0.853195 0.293873 0.5
868 1 0.870788 0.300847 0.5
1021 1 0.923475 0.294709 0.5
374 1 0.939932 0.286554 0.5
470 1 0.965021 0.30289 0.5
896 1 0.976587 0.287892 0.5
1234 1 0.0116338 0.317679 0.5
1009 1 0.0284148 0.325461 0.5
725 1 0.0625567 0.32059 0.5
164 1 0.0937285 0.316349 0.5
83 1 0.149432 0.333143 0.5
188 1 0.14375 0.314965 0.5
488 1 0.161938 0.319007 0.5
1243 1 0.180144 0.323037 0.5
175 1 0.206323 0.310284 0.5
1094 1 0.221624 0.328994 0.5
546 1 0.240836 0.328325 0.5
659 1 0.309948 0.321364 0.5
990 1 0.341906 0.313898 0.5
537 1 0.369313 0.316838 0.5
1357 1 0.393943 0.319009 0.5
960 1 0.424645 0.329908 0.5
1004 1 0.41224 0.314704 0.5
986 1 0.430596 0.312635 0.5
1524 2 0.482855 0.330899 0.5
1065 1 0.512664 0.320345 0.5
905 1 0.572851 0.31472 0.5
1126 1 0.590566 0.320287 0.5
1342 1 0.609187 0.321246 0.5
853 1 0.640428 0.320353 0.5
936 1 0.625188 0.331451 0.5
910 1 0.657279 0.328212 0.5
289 1 0.674311 0.321151 0.5
1404 1 0.730764 0.313955 0.5
826 1 0.714937 0.331979 0.5
709 1 0.757248 0.328276 0.5
241 1 0.763028 0.310365 0.5
1340 1 0.777109 0.322273 0.5
1443 1 0.794687 0.313672 0.5
373 1 0.795157 0.332065 0.5
817 1 0.815751 0.317401 0.5
324 1 0.856066 0.312347 0.5
1268 1 0.873658 0.319364 0.5
469 1 0.892119 0.316381 0.5
1336 1 0.921771 0.322244 0.5
1170 1 0.940223 0.324716 0.5
396 1 0.973638 0.319764 0.5
65 1 0.0388462 0.340332 0.5
113 1 0.0497139 0.354865 0.5
664 1 0.0684005 0.352311 0.5
1007 1 0.0571521 0.337983 0.5
274 1 0.086602 0.349236 0.5
456 1 0.0754571 0.33424 0.5
865 1 0.166563 0.355004 0.5
1442 1 0.167792 0.336799 0.5
11 1 0.19203 0.336936 0.5
461 1 0.231834 0.344718 0.5
570 1 0.247997 0.353547 0.5
901 1 0.257505 0.337495 0.5
244 1 0.27753 0.344188 0.5
878 1 0.295801 0.348973 0.5
981 1 0.330967 0.356353 0.5
829 1 0.37092 0.335854 0.5
1275 1 0.415961 0.346266 0.5
1405 1 0.453305 0.341251 0.5
699 1 0.514636 0.340094 0.5
505 1 0.530904 0.350968 0.5
1092 1 0.56222 0.346513 0.5
582 1 0.580776 0.343445 0.5
1489 1 0.598676 0.336982 0.5
753 1 0.642379 0.339143 0.5
435 1 0.62761 0.350335 0.5
416 1 0.671623 0.340086 0.5
572 1 0.682748 0.355005 0.5
502 1 0.725597 0.348777 0.5
1071 1 0.739153 0.335765 0.5
460 1 0.778715 0.340338 0.5
62 1 0.793582 0.350868 0.5
1338 1 0.849443 0.340734 0.5
617 1 0.894467 0.33498 0.5
656 1 0.922727 0.340878 0.5
1179 1 0.940953 0.34323 0.5
962 1 0.955591 0.35451 0.5
642 1 0.985795 0.344296 0.5
793 1 0.00897851 0.368959 0.5
17 1 0.0285199 0.380659 0.5
1480 1 0.0600603 0.369625 0.5
1075 1 0.0782003 0.367789 0.5
974 1 0.0947342 0.374795 0.5
846 1 0.112726 0.373862 0.5
1139 1 0.102742 0.358166 0.5
1194 1 0.148985 0.36016 0.5
1599 2 0.194479 0.367322 0.5
1012 1 0.226969 0.362798 0.5
400 1 0.243353 0.371471 0.5
80 1 0.276073 0.375963 0.5
1308 1 0.293822 0.367576 0.5
1156 1 0.311852 0.35815 0.5
932 1 0.349232 0.362467 0.5
15 1 0.376826 0.359932 0.5
1450 1 0.364977 0.374592 0.5
788 1 0.451616 0.377757 0.5
972 1 0.450252 0.359452 0.5
1451 1 0.467594 0.36744 0.5
71 1 0.495503 0.359338 0.5
1373 1 0.498254 0.377847 0.5
1196 1 0.569591 0.363403 0.5
646 1 0.549397 0.360142 0.5
1571 2 0.601791 0.368858 0.5
127 1 0.632217 0.379627 0.5
134 1 0.64164 0.36314 0.5
228 1 0.664422 0.359955 0.5
1286 1 0.711555 0.36088 0.5
1600 2 0.75873 0.361205 0.5
1152 1 0.789637 0.369131 0.5
1542 2 0.823296 0.357954 0.5
1098 1 0.848803 0.379592 0.5
295 1 0.877039 0.367894 0.5
466 1 0.896177 0.368683 0.5
317 1 0.923052 0.375397 0.5
1463 1 0.916155 0.358277 0.5
615 1 0.935775 0.361111 0.5
675 1 0.953325 0.372587 0.5
1160 1 0.97119 0.366172 0.5
1032 1 0.983801 0.380524 0.5
78 1 0.0109994 0.387397 0.5
797 1 0.0249493 0.399231 0.5
1581 2 0.0557936 0.400532 0.5
322 1 0.0848393 0.389988 0.5
184 1 0.127384 0.384513 0.5
88 1 0.12092 0.402019 0.5
568 1 0.139312 0.398446 0.5
908 1 0.157748 0.402053 0.5
247 1 0.200539 0.397099 0.5
1188 1 0.217073 0.388374 0.5
1331 1 0.235392 0.38821 0.5
819 1 0.253999 0.387061 0.5
894 1 0.26845 0.398388 0.5
77 1 0.287046 0.397011 0.5
1594 2 0.31801 0.388427 0.5
146 1 0.34581 0.403958 0.5
1048 1 0.347756 0.381033 0.5
269 1 0.361132 0.393454 0.5
533 1 0.378606 0.387789 0.5
592 1 0.414951 0.402682 0.5
948 1 0.449839 0.402658 0.5
1393 1 0.436871 0.389578 0.5
945 1 0.463884 0.391142 0.5
163 1 0.479883 0.382086 0.5
988 1 0.515783 0.38492 0.5
35 1 0.516006 0.403752 0.5
1403 1 0.533843 0.397363 0.5
1181 1 0.552551 0.39382 0.5
535 1 0.585873 0.397237 0.5
1163 1 0.622183 0.395382 0.5
101 1 0.654009 0.382735 0.5
1302 1 0.674334 0.396508 0.5
1575 2 0.723928 0.388635 0.5
1585 2 0.775788 0.399733 0.5
33 1 0.804243 0.387214 0.5
1344 1 0.822527 0.3885 0.5
1307 1 0.838949 0.396684 0.5
830 1 0.857417 0.39598 0.5
930 1 0.873551 0.386473 0.5
257 1 0.897419 0.395192 0.5
622 1 0.966236 0.385864 0.5
352 1 0.977189 0.401001 0.5
1303 1 0.994546 0.395415 0.5
12 1 0.0236363 0.418015 0.5
786 1 0.00841383 0.407053 0.5
842 1 0.00537429 0.425118 0.5
1127 1 0.0931089 0.40652 0.5
70 1 0.081152 0.421068 0.5
799 1 0.10883 0.416026 0.5
1283 1 0.127029 0.419651 0.5
212 1 0.145107 0.416088 0.5
704 1 0.161405 0.424654 0.5
1151 1 0.178564 0.416493 0.5
982 1 0.197447 0.415015 0.5
1280 1 0.213441 0.425046 0.5
513 1 0.216269 0.406982 0.5
1041 1 0.232492 0.421201 0.5
687 1 0.253402 0.410492 0.5
693 1 0.278592 0.413775 0.5
1392 1 0.293844 0.424403 0.5
475 1 0.311427 0.418984 0.5
335 1 0.394258 0.410019 0.5
966 1 0.432686 0.408861 0.5
462 1 0.459519 0.418266 0.5
1311 1 0.474245 0.406382 0.5
1158 1 0.497303 0.405544 0.5
613 1 0.506666 0.42217 0.5
1211 1 0.546873 0.411525 0.5
1244 1 0.574855 0.413535 0.5
360 1 0.587639 0.426867 0.5
519 1 0.598568 0.410852 0.5
956 1 0.617213 0.413265 0.5
1477 1 0.606021 0.427801 0.5
1586 2 0.64859 0.413344 0.5
72 1 0.683335 0.412434 0.5
271 1 0.700937 0.42295 0.5
685 1 0.699844 0.404878 0.5
619 1 0.733999 0.427781 0.5
1295 1 0.718133 0.417371 0.5
210 1 0.752087 0.424984 0.5
1174 1 0.746846 0.407915 0.5
1003 1 0.804955 0.408564 0.5
1201 1 0.793728 0.426956 0.5
565 1 0.813183 0.424963 0.5
719 1 0.831641 0.422347 0.5
1089 1 0.823 0.406628 0.5
924 1 0.848319 0.41292 0.5
1019 1 0.86747 0.411188 0.5
586 1 0.911519 0.407962 0.5
1248 1 0.974806 0.423879 0.5
320 1 0.990644 0.414003 0.5
312 1 0.0198036 0.436306 0.5
1147 1 0.0379563 0.439429 0.5
727 1 0.0549224 0.432186 0.5
183 1 0.0524719 0.451667 0.5
383 1 0.0829024 0.442872 0.5
587 1 0.113974 0.433574 0.5
891 1 0.116696 0.451826 0.5
434 1 0.132052 0.437501 0.5
752 1 0.150698 0.440604 0.5
686 1 0.168947 0.451474 0.5
103 1 0.177019 0.434884 0.5
980 1 0.196032 0.433332 0.5
91 1 0.215553 0.443285 0.5
761 1 0.234408 0.439678 0.5
834 1 0.25009 0.429233 0.5
712 1 0.276853 0.432379 0.5
169 1 0.292582 0.442995 0.5
200 1 0.309464 0.451513 0.5
564 1 0.31934 0.435719 0.5
316 1 0.355557 0.429451 0.5
417 1 0.349328 0.449834 0.5
1545 2 0.414126 0.433931 0.5
467 1 0.483063 0.450166 0.5
1466 1 0.497261 0.438484 0.5
1249 1 0.514566 0.444674 0.5
539 1 0.547279 0.430196 0.5
518 1 0.533138 0.44251 0.5
379 1 0.566109 0.430223 0.5
1313 1 0.578833 0.443741 0.5
739 1 0.596952 0.443299 0.5
338 1 0.614831 0.446916 0.5
256 1 0.623697 0.430736 0.5
920 1 0.633482 0.445762 0.5
1367 1 0.651056 0.444819 0.5
284 1 0.667648 0.436754 0.5
494 1 0.684384 0.430167 0.5
536 1 0.682242 0.44783 0.5
362 1 0.699278 0.440871 0.5
636 1 0.717374 0.435393 0.5
769 1 0.730739 0.450914 0.5
192 1 0.746626 0.44228 0.5
202 1 0.768718 0.431806 0.5
818 1 0.780765 0.445439 0.5
1140 1 0.7628 0.450956 0.5
1236 1 0.804676 0.441778 0.5
1 1 0.82359 0.440547 0.5
1413 1 0.842431 0.436856 0.5
1352 1 0.879494 0.450497 0.5
1337 1 0.899714 0.431347 0.5
1274 1 0.973938 0.44279 0.5
944 1 0.991887 0.43795 0.5
1554 2 0.023986 0.468543 0.5
1197 1 0.0657209 0.466893 0.5
104 1 0.0852804 0.462091 0.5
660 1 0.134685 0.455638 0.5
209 1 0.139557 0.473661 0.5
576 1 0.152528 0.459504 0.5
674 1 0.173806 0.47005 0.5
117 1 0.204403 0.462606 0.5
749 1 0.22806 0.457017 0.5
38 1 0.219648 0.472771 0.5
1587 2 0.259881 0.460292 0.5
179 1 0.289933 0.469701 0.5
346 1 0.333761 0.461641 0.5
971 1 0.390461 0.455607 0.5
315 1 0.406847 0.464203 0.5
1321 1 0.425028 0.462397 0.5
1551 2 0.45516 0.463591 0.5
309 1 0.500399 0.457328 0.5
1319 1 0.589827 0.460157 0.5
524 1 0.62614 0.461871 0.5
975 1 0.645181 0.463271 0.5
340 1 0.665557 0.454734 0.5
1028 1 0.66303 0.472291 0.5
1036 1 0.679757 0.465707 0.5
599 1 0.696435 0.458775 0.5
773 1 0.712934 0.452589 0.5
852 1 0.72135 0.468057 0.5
448 1 0.826516 0.471451 0.5
1422 1 0.813041 0.458268 0.5
520 1 0.850956 0.473959 0.5
1455 1 0.868774 0.466559 0.5
336 1 0.887639 0.46712 0.5
931 1 0.914468 0.466579 0.5
800 1 0.940466 0.464869 0.5
1024 1 0.958644 0.470448 0.5
4 1 0.068898 0.495236 0.5
850 1 0.0796012 0.479942 0.5
983 1 0.0906605 0.495174 0.5
401 1 0.120621 0.479357 0.5
208 1 0.129235 0.496232 0.5
669 1 0.165258 0.49311 0.5
155 1 0.191926 0.477167 0.5
305 1 0.208394 0.486253 0.5
59 1 0.235818 0.480636 0.5
677 1 0.224764 0.495839 0.5
140 1 0.247781 0.494389 0.5
1485 1 0.320963 0.477937 0.5
862 1 0.342863 0.478183 0.5
1296 1 0.341284 0.499371 0.5
1473 1 0.377109 0.495811 0.5
1468 1 0.39859 0.480399 0.5
1084 1 0.418204 0.479211 0.5
294 1 0.409536 0.495276 0.5
772 1 0.478117 0.484764 0.5
387 1 0.523369 0.491695 0.5
1095 1 0.509356 0.479731 0.5
724 1 0.542403 0.49177 0.5
1192 1 0.570449 0.490371 0.5
1555 2 0.611524 0.487763 0.5
191 1 0.641026 0.499152 0.5
1119 1 0.649087 0.483136 0.5
350 1 0.659743 0.499523 0.5
1511 2 0.698965 0.488112 0.5
1536 2 0.748801 0.479464 0.5
1081 1 0.814565 0.493577 0.5
1423 1 0.856915 0.491942 0.5
370 1 0.884535 0.485343 0.5
476 1 0.962767 0.489296 0.5
935 1 0.0171389 0.507568 0.5
1434 1 0.0352511 0.514657 0.5
526 1 0.0689694 0.513806 0.5
705 1 0.052216 0.505376 0.5
357 1 0.0886369 0.513831 0.5
492 1 0.108076 0.518445 0.5
1387 1 0.12951 0.515465 0.5
1341 1 0.149328 0.515809 0.5
1534 2 0.191687 0.510435 0.5
1053 1 0.223354 0.514971 0.5
1548 2 0.278817 0.500397 0.5
808 1 0.353712 0.514398 0.5
87 1 0.392729 0.519643 0.5
760 1 0.410234 0.513746 0.5
1578 2 0.440868 0.50564 0.5
73 1 0.473625 0.511345 0.5
1113 1 0.488928 0.500025 0.5
1378 1 0.509703 0.505366 0.5
1447 1 0.501457 0.52375 0.5
870 1 0.531628 0.5077 0.5
1540 2 0.559021 0.520902 0.5
92 1 0.601072 0.515903 0.5
363 1 0.618342 0.521756 0.5
1412 1 0.635634 0.516338 0.5
52 1 0.661173 0.51847 0.5
182 1 0.676391 0.508473 0.5
239 1 0.69351 0.516649 0.5
661 1 0.712332 0.517179 0.5
601 1 0.725318 0.502611 0.5
1306 1 0.733821 0.518705 0.5
658 1 0.761636 0.507674 0.5
1252 1 0.778238 0.522867 0.5
1062 1 0.853218 0.518617 0.5
1504 2 0.888758 0.517261 0.5
1375 1 0.0326384 0.533155 0.5
863 1 0.0454341 0.546461 0.5
1112 1 0.0515422 0.524206 0.5
1503 2 0.0770734 0.544469 0.5
426 1 0.107899 0.537217 0.5
1291 1 0.132512 0.541871 0.5
556 1 0.149306 0.534507 0.5
347 1 0.16571 0.526857 0.5
806 1 0.163094 0.54701 0.5
439 1 0.180208 0.539274 0.5
354 1 0.20063 0.539333 0.5
478 1 0.219101 0.533673 0.5
741 1 0.237447 0.527642 0.5
455 1 0.249709 0.545222 0.5
277 1 0.263993 0.532738 0.5
226 1 0.295779 0.527093 0.5
453 1 0.325989 0.536854 0.5
916 1 0.35829 0.53356 0.5
464 1 0.38081 0.53413 0.5
1049 1 0.399793 0.536846 0.5
395 1 0.44891 0.538678 0.5
385 1 0.473769 0.543178 0.5
851 1 0.463927 0.52753 0.5
918 1 0.527835 0.52589 0.5
397 1 0.588083 0.528327 0.5
1492 1 0.605229 0.534531 0.5
63 1 0.664 0.53684 0.5
1255 1 0.678845 0.526762 0.5
1312 1 0.683132 0.544596 0.5
1202 1 0.698552 0.533833 0.5
1285 1 0.730627 0.544613 0.5
306 1 0.749312 0.546313 0.5
828 1 0.779843 0.541753 0.5
566 1 0.872985 0.547373 0.5
1259 1 0.908083 0.54372 0.5
265 1 0.928232 0.547513 0.5
604 1 0.982339 0.538911 0.5
938 1 0.00887082 0.550932 0.5
742 1 0.0148888 0.568507 0.5
1353 1 0.0392225 0.564791 0.5
1223 1 0.190273 0.55486 0.5
1462 1 0.209122 0.555191 0.5
691 1 0.226189 0.562233 0.5
1189 1 0.256689 0.567497 0.5
1507 2 0.34156 0.564912 0.5
25 1 0.36942 0.548784 0.5
776 1 0.387973 0.55138 0.5
1354 1 0.426296 0.560492 0.5
292 1 0.444227 0.565602 0.5
1122 1 0.458954 0.554297 0.5
471 1 0.49521 0.565522 0.5
746 1 0.513107 0.571394 0.5
780 1 0.591231 0.56966 0.5
1346 1 0.655949 0.553157 0.5
288 1 0.663724 0.569939 0.5
961 1 0.681015 0.563064 0.5
1290 1 0.705485 0.567281 0.5
44 1 0.738651 0.561818 0.5
1402 1 0.770167 0.567582 0.5
1093 1 0.795566 0.552137 0.5
574 1 0.808035 0.566105 0.5
236 1 0.841196 0.567239 0.5
515 1 0.880088 0.565208 0.5
607 1 0.938012 0.563815 0.5
423 1 0.967983 0.550978 0.5
785 1 0.956247 0.565756 0.5
509 1 0.0287016 0.58081 0.5
530 1 0.0469716 0.582805 0.5
766 1 0.140068 0.59359 0.5
955 1 0.173398 0.583273 0.5
702 1 0.189448 0.593657 0.5
341 1 0.210325 0.573323 0.5
450 1 0.260664 0.58607 0.5
715 1 0.316687 0.58582 0.5
490 1 0.355958 0.594044 0.5
507 1 0.4308 0.578726 0.5
778 1 0.483666 0.580342 0.5
1229 1 0.522975 0.592494 0.5
225 1 0.575982 0.580867 0.5
457 1 0.593314 0.588099 0.5
1389 1 0.608852 0.576931 0.5
1330 1 0.628617 0.574872 0.5
529 1 0.660551 0.588401 0.5
231 1 0.679862 0.594619 0.5
643 1 0.690659 0.578926 0.5
1364 1 0.738526 0.587816 0.5
671 1 0.769419 0.588681 0.5
1460 1 0.810227 0.584781 0.5
314 1 0.879815 0.584721 0.5
843 1 0.932733 0.581617 0.5
361 1 0.951558 0.584055 0.5
1532 2 0.984955 0.577509 0.5
751 1 0.018586 0.603686 0.5
1218 1 0.0380442 0.599756 0.5
468 1 0.0307138 0.617764 0.5
43 1 0.0568527 0.604449 0.5
1561 2 0.164857 0.613773 0.5
1278 1 0.199679 0.60977 0.5
1527 2 0.229556 0.597242 0.5
767 1 0.302461 0.598283 0.5
1008 1 0.30633 0.616639 0.5
349 1 0.320187 0.604022 0.5
1263 1 0.350007 0.611766 0.5
1343 1 0.337556 0.597514 0.5
837 1 0.394064 0.595805 0.5
1497 1 0.404752 0.611195 0.5
552 1 0.447217 0.611307 0.5
1281 1 0.464819 0.605507 0.5
1359 1 0.478892 0.617892 0.5
291 1 0.481945 0.598869 0.5
334 1 0.496287 0.610293 0.5
1232 1 0.567818 0.606707 0.5
1457 1 0.549806 0.611502 0.5
418 1 0.636075 0.596738 0.5
1385 1 0.622492 0.613477 0.5
814 1 0.640804 0.614567 0.5
275 1 0.657322 0.606841 0.5
135 1 0.671955 0.618428 0.5
825 1 0.725865 0.602034 0.5
156 1 0.758684 0.611046 0.5
199 1 0.777309 0.608227 0.5
109 1 0.806832 0.603463 0.5
713 1 0.83982 0.617479 0.5
1087 1 0.876636 0.603604 0.5
51 1 0.919465 0.59533 0.5
1187 1 0.907941 0.618736 0.5
406 1 0.962564 0.600569 0.5
1203 1 0.980388 0.60899 0.5
344 1 0.999761 0.605967 0.5
1172 1 0.0119762 0.621475 0.5
1025 1 0.0170253 0.640109 0.5
978 1 0.0562414 0.636283 0.5
1235 1 0.0718334 0.624927 0.5
48 1 0.0950731 0.62299 0.5
358 1 0.0844407 0.638448 0.5
157 1 0.13358 0.621366 0.5
268 1 0.143522 0.637381 0.5
1333 1 0.180415 0.641027 0.5
474 1 0.19428 0.627749 0.5
1238 1 0.213576 0.627128 0.5
144 1 0.234553 0.630145 0.5
1406 1 0.250605 0.619748 0.5
821 1 0.252805 0.637924 0.5
611 1 0.289968 0.625815 0.5
1020 1 0.36159 0.63903 0.5
353 1 0.381118 0.639656 0.5
906 1 0.461016 0.623919 0.5
976 1 0.454692 0.642302 0.5
807 1 0.473121 0.637856 0.5
198 1 0.508429 0.624299 0.5
549 1 0.510511 0.64271 0.5
414 1 0.529124 0.642423 0.5
139 1 0.540605 0.627603 0.5
1349 1 0.559016 0.632594 0.5
323 1 0.575791 0.623985 0.5
1039 1 0.582486 0.641875 0.5
1176 1 0.619967 0.638655 0.5
1213 1 0.63742 0.63239 0.5
297 1 0.655246 0.62637 0.5
879 1 0.673823 0.637113 0.5
1260 1 0.695833 0.633725 0.5
991 1 0.711981 0.624146 0.5
877 1 0.727808 0.633023 0.5
411 1 0.74443 0.623823 0.5
136 1 0.743164 0.642392 0.5
1508 2 0.772326 0.640422 0.5
371 1 0.800885 0.628919 0.5
1410 1 0.817015 0.638535 0.5
1461 1 0.816779 0.619549 0.5
293 1 0.851132 0.633233 0.5
37 1 0.868964 0.639275 0.5
359 1 0.906912 0.637941 0.5
762 1 0.926341 0.621137 0.5
420 1 0.964812 0.619289 0.5
1046 1 0.993068 0.623064 0.5
82 1 0.0358723 0.643715 0.5
698 1 0.034117 0.662325 0.5
94 1 0.0513028 0.654688 0.5
178 1 0.0696417 0.649479 0.5
47 1 0.0831019 0.664036 0.5
1535 2 0.113977 0.648291 0.5
1382 1 0.17628 0.663026 0.5
382 1 0.192739 0.654472 0.5
1351 1 0.21099 0.652045 0.5
559 1 0.244561 0.654547 0.5
1011 1 0.261358 0.663279 0.5
922 1 0.352882 0.65627 0.5
820 1 0.371018 0.654771 0.5
926 1 0.39946 0.643192 0.5
1047 1 0.38883 0.658396 0.5
859 1 0.407422 0.660393 0.5